11325 atoms
1 atom types

0.0 4.072500000000001 xlo xhi
0.0 4.072500000000001 ylo yhi
0.0 4.072500000000001 zlo zhi
0.000000 0.000000 0.000000 xy xz yz

Masses

1 28.0855

Atoms
1 1 0.0 0.0 0.0 0.132
2 1 0.0 0.2715 0.0 0.132
3 1 0.0 0.543 0.0 0.132
4 1 0.0 0.8145 0.0 0.132
5 1 0.0 1.086 0.0 0.132
6 1 0.0 1.3575000000000002 0.0 0.132
7 1 0.0 1.629 0.0 0.132
8 1 0.0 1.9005 0.0 0.132
9 1 0.0 2.172 0.0 0.132
10 1 0.0 2.4435000000000002 0.0 0.132
11 1 0.0 2.7150000000000003 0.0 0.132
12 1 0.0 2.9865000000000004 0.0 0.132
13 1 0.0 3.258 0.0 0.132
14 1 0.0 3.5295 0.0 0.132
15 1 0.0 3.801 0.0 0.132
16 1 0.13575 0.13575 0.0 0.132
17 1 0.13575 0.40725 0.0 0.132
18 1 0.13575 0.6787500000000001 0.0 0.132
19 1 0.13575 0.95025 0.0 0.132
20 1 0.13575 1.2217500000000001 0.0 0.132
21 1 0.13575 1.4932500000000002 0.0 0.132
22 1 0.13575 1.76475 0.0 0.132
23 1 0.13575 2.0362500000000003 0.0 0.132
24 1 0.13575 2.30775 0.0 0.132
25 1 0.13575 2.57925 0.0 0.132
26 1 0.13575 2.85075 0.0 0.132
27 1 0.13575 3.12225 0.0 0.132
28 1 0.13575 3.3937500000000003 0.0 0.132
29 1 0.13575 3.6652500000000003 0.0 0.132
30 1 0.13575 3.9367500000000004 0.0 0.132
31 1 0.2715 0.0 0.0 0.132
32 1 0.2715 0.2715 0.0 0.132
33 1 0.2715 0.543 0.0 0.132
34 1 0.2715 0.8145 0.0 0.132
35 1 0.2715 1.086 0.0 0.132
36 1 0.2715 1.3575000000000002 0.0 0.132
37 1 0.2715 1.629 0.0 0.132
38 1 0.2715 1.9005 0.0 0.132
39 1 0.2715 2.172 0.0 0.132
40 1 0.2715 2.4435000000000002 0.0 0.132
41 1 0.2715 2.7150000000000003 0.0 0.132
42 1 0.2715 2.9865000000000004 0.0 0.132
43 1 0.2715 3.258 0.0 0.132
44 1 0.2715 3.5295 0.0 0.132
45 1 0.2715 3.801 0.0 0.132
46 1 0.40725 0.13575 0.0 0.132
47 1 0.40725 0.40725 0.0 0.132
48 1 0.40725 0.6787500000000001 0.0 0.132
49 1 0.40725 0.95025 0.0 0.132
50 1 0.40725 1.2217500000000001 0.0 0.132
51 1 0.40725 1.4932500000000002 0.0 0.132
52 1 0.40725 1.76475 0.0 0.132
53 1 0.40725 2.0362500000000003 0.0 0.132
54 1 0.40725 2.30775 0.0 0.132
55 1 0.40725 2.57925 0.0 0.132
56 1 0.40725 2.85075 0.0 0.132
57 1 0.40725 3.12225 0.0 0.132
58 1 0.40725 3.3937500000000003 0.0 0.132
59 1 0.40725 3.6652500000000003 0.0 0.132
60 1 0.40725 3.9367500000000004 0.0 0.132
61 1 0.543 0.0 0.0 0.132
62 1 0.543 0.2715 0.0 0.132
63 1 0.543 0.543 0.0 0.132
64 1 0.543 0.8145 0.0 0.132
65 1 0.543 1.086 0.0 0.132
66 1 0.543 1.3575000000000002 0.0 0.132
67 1 0.543 1.629 0.0 0.132
68 1 0.543 1.9005 0.0 0.132
69 1 0.543 2.172 0.0 0.132
70 1 0.543 2.4435000000000002 0.0 0.132
71 1 0.543 2.7150000000000003 0.0 0.132
72 1 0.543 2.9865000000000004 0.0 0.132
73 1 0.543 3.258 0.0 0.132
74 1 0.543 3.5295 0.0 0.132
75 1 0.543 3.801 0.0 0.132
76 1 0.6787500000000001 0.13575 0.0 0.132
77 1 0.6787500000000001 0.40725 0.0 0.132
78 1 0.6787500000000001 0.6787500000000001 0.0 0.132
79 1 0.6787500000000001 0.95025 0.0 0.132
80 1 0.6787500000000001 1.2217500000000001 0.0 0.132
81 1 0.6787500000000001 1.4932500000000002 0.0 0.132
82 1 0.6787500000000001 1.76475 0.0 0.132
83 1 0.6787500000000001 2.0362500000000003 0.0 0.132
84 1 0.6787500000000001 2.30775 0.0 0.132
85 1 0.6787500000000001 2.57925 0.0 0.132
86 1 0.6787500000000001 2.85075 0.0 0.132
87 1 0.6787500000000001 3.12225 0.0 0.132
88 1 0.6787500000000001 3.3937500000000003 0.0 0.132
89 1 0.6787500000000001 3.6652500000000003 0.0 0.132
90 1 0.6787500000000001 3.9367500000000004 0.0 0.132
91 1 0.8145 0.0 0.0 0.132
92 1 0.8145 0.2715 0.0 0.132
93 1 0.8145 0.543 0.0 0.132
94 1 0.8145 0.8145 0.0 0.132
95 1 0.8145 1.086 0.0 0.132
96 1 0.8145 1.3575000000000002 0.0 0.132
97 1 0.8145 1.629 0.0 0.132
98 1 0.8145 1.9005 0.0 0.132
99 1 0.8145 2.172 0.0 0.132
100 1 0.8145 2.4435000000000002 0.0 0.132
101 1 0.8145 2.7150000000000003 0.0 0.132
102 1 0.8145 2.9865000000000004 0.0 0.132
103 1 0.8145 3.258 0.0 0.132
104 1 0.8145 3.5295 0.0 0.132
105 1 0.8145 3.801 0.0 0.132
106 1 0.95025 0.13575 0.0 0.132
107 1 0.95025 0.40725 0.0 0.132
108 1 0.95025 0.6787500000000001 0.0 0.132
109 1 0.95025 0.95025 0.0 0.132
110 1 0.95025 1.2217500000000001 0.0 0.132
111 1 0.95025 1.4932500000000002 0.0 0.132
112 1 0.95025 1.76475 0.0 0.132
113 1 0.95025 2.0362500000000003 0.0 0.132
114 1 0.95025 2.30775 0.0 0.132
115 1 0.95025 2.57925 0.0 0.132
116 1 0.95025 2.85075 0.0 0.132
117 1 0.95025 3.12225 0.0 0.132
118 1 0.95025 3.3937500000000003 0.0 0.132
119 1 0.95025 3.6652500000000003 0.0 0.132
120 1 0.95025 3.9367500000000004 0.0 0.132
121 1 1.086 0.0 0.0 0.132
122 1 1.086 0.2715 0.0 0.132
123 1 1.086 0.543 0.0 0.132
124 1 1.086 0.8145 0.0 0.132
125 1 1.086 1.086 0.0 0.132
126 1 1.086 1.3575000000000002 0.0 0.132
127 1 1.086 1.629 0.0 0.132
128 1 1.086 1.9005 0.0 0.132
129 1 1.086 2.172 0.0 0.132
130 1 1.086 2.4435000000000002 0.0 0.132
131 1 1.086 2.7150000000000003 0.0 0.132
132 1 1.086 2.9865000000000004 0.0 0.132
133 1 1.086 3.258 0.0 0.132
134 1 1.086 3.5295 0.0 0.132
135 1 1.086 3.801 0.0 0.132
136 1 1.2217500000000001 0.13575 0.0 0.132
137 1 1.2217500000000001 0.40725 0.0 0.132
138 1 1.2217500000000001 0.6787500000000001 0.0 0.132
139 1 1.2217500000000001 0.95025 0.0 0.132
140 1 1.2217500000000001 1.2217500000000001 0.0 0.132
141 1 1.2217500000000001 1.4932500000000002 0.0 0.132
142 1 1.2217500000000001 1.76475 0.0 0.132
143 1 1.2217500000000001 2.0362500000000003 0.0 0.132
144 1 1.2217500000000001 2.30775 0.0 0.132
145 1 1.2217500000000001 2.57925 0.0 0.132
146 1 1.2217500000000001 2.85075 0.0 0.132
147 1 1.2217500000000001 3.12225 0.0 0.132
148 1 1.2217500000000001 3.3937500000000003 0.0 0.132
149 1 1.2217500000000001 3.6652500000000003 0.0 0.132
150 1 1.2217500000000001 3.9367500000000004 0.0 0.132
151 1 1.3575000000000002 0.0 0.0 0.132
152 1 1.3575000000000002 0.2715 0.0 0.132
153 1 1.3575000000000002 0.543 0.0 0.132
154 1 1.3575000000000002 0.8145 0.0 0.132
155 1 1.3575000000000002 1.086 0.0 0.132
156 1 1.3575000000000002 1.3575000000000002 0.0 0.132
157 1 1.3575000000000002 1.629 0.0 0.132
158 1 1.3575000000000002 1.9005 0.0 0.132
159 1 1.3575000000000002 2.172 0.0 0.132
160 1 1.3575000000000002 2.4435000000000002 0.0 0.132
161 1 1.3575000000000002 2.7150000000000003 0.0 0.132
162 1 1.3575000000000002 2.9865000000000004 0.0 0.132
163 1 1.3575000000000002 3.258 0.0 0.132
164 1 1.3575000000000002 3.5295 0.0 0.132
165 1 1.3575000000000002 3.801 0.0 0.132
166 1 1.4932500000000002 0.13575 0.0 0.132
167 1 1.4932500000000002 0.40725 0.0 0.132
168 1 1.4932500000000002 0.6787500000000001 0.0 0.132
169 1 1.4932500000000002 0.95025 0.0 0.132
170 1 1.4932500000000002 1.2217500000000001 0.0 0.132
171 1 1.4932500000000002 1.4932500000000002 0.0 0.132
172 1 1.4932500000000002 1.76475 0.0 0.132
173 1 1.4932500000000002 2.0362500000000003 0.0 0.132
174 1 1.4932500000000002 2.30775 0.0 0.132
175 1 1.4932500000000002 2.57925 0.0 0.132
176 1 1.4932500000000002 2.85075 0.0 0.132
177 1 1.4932500000000002 3.12225 0.0 0.132
178 1 1.4932500000000002 3.3937500000000003 0.0 0.132
179 1 1.4932500000000002 3.6652500000000003 0.0 0.132
180 1 1.4932500000000002 3.9367500000000004 0.0 0.132
181 1 1.629 0.0 0.0 0.132
182 1 1.629 0.2715 0.0 0.132
183 1 1.629 0.543 0.0 0.132
184 1 1.629 0.8145 0.0 0.132
185 1 1.629 1.086 0.0 0.132
186 1 1.629 1.3575000000000002 0.0 0.132
187 1 1.629 1.629 0.0 0.132
188 1 1.629 1.9005 0.0 0.132
189 1 1.629 2.172 0.0 0.132
190 1 1.629 2.4435000000000002 0.0 0.132
191 1 1.629 2.7150000000000003 0.0 0.132
192 1 1.629 2.9865000000000004 0.0 0.132
193 1 1.629 3.258 0.0 0.132
194 1 1.629 3.5295 0.0 0.132
195 1 1.629 3.801 0.0 0.132
196 1 1.76475 0.13575 0.0 0.132
197 1 1.76475 0.40725 0.0 0.132
198 1 1.76475 0.6787500000000001 0.0 0.132
199 1 1.76475 0.95025 0.0 0.132
200 1 1.76475 1.2217500000000001 0.0 0.132
201 1 1.76475 1.4932500000000002 0.0 0.132
202 1 1.76475 1.76475 0.0 0.132
203 1 1.76475 2.0362500000000003 0.0 0.132
204 1 1.76475 2.30775 0.0 0.132
205 1 1.76475 2.57925 0.0 0.132
206 1 1.76475 2.85075 0.0 0.132
207 1 1.76475 3.12225 0.0 0.132
208 1 1.76475 3.3937500000000003 0.0 0.132
209 1 1.76475 3.6652500000000003 0.0 0.132
210 1 1.76475 3.9367500000000004 0.0 0.132
211 1 1.9005 0.0 0.0 0.132
212 1 1.9005 0.2715 0.0 0.132
213 1 1.9005 0.543 0.0 0.132
214 1 1.9005 0.8145 0.0 0.132
215 1 1.9005 1.086 0.0 0.132
216 1 1.9005 1.3575000000000002 0.0 0.132
217 1 1.9005 1.629 0.0 0.132
218 1 1.9005 1.9005 0.0 0.132
219 1 1.9005 2.172 0.0 0.132
220 1 1.9005 2.4435000000000002 0.0 0.132
221 1 1.9005 2.7150000000000003 0.0 0.132
222 1 1.9005 2.9865000000000004 0.0 0.132
223 1 1.9005 3.258 0.0 0.132
224 1 1.9005 3.5295 0.0 0.132
225 1 1.9005 3.801 0.0 0.132
226 1 2.0362500000000003 0.13575 0.0 0.132
227 1 2.0362500000000003 0.40725 0.0 0.132
228 1 2.0362500000000003 0.6787500000000001 0.0 0.132
229 1 2.0362500000000003 0.95025 0.0 0.132
230 1 2.0362500000000003 1.2217500000000001 0.0 0.132
231 1 2.0362500000000003 1.4932500000000002 0.0 0.132
232 1 2.0362500000000003 1.76475 0.0 0.132
233 1 2.0362500000000003 2.0362500000000003 0.0 0.132
234 1 2.0362500000000003 2.30775 0.0 0.132
235 1 2.0362500000000003 2.57925 0.0 0.132
236 1 2.0362500000000003 2.85075 0.0 0.132
237 1 2.0362500000000003 3.12225 0.0 0.132
238 1 2.0362500000000003 3.3937500000000003 0.0 0.132
239 1 2.0362500000000003 3.6652500000000003 0.0 0.132
240 1 2.0362500000000003 3.9367500000000004 0.0 0.132
241 1 2.172 0.0 0.0 0.132
242 1 2.172 0.2715 0.0 0.132
243 1 2.172 0.543 0.0 0.132
244 1 2.172 0.8145 0.0 0.132
245 1 2.172 1.086 0.0 0.132
246 1 2.172 1.3575000000000002 0.0 0.132
247 1 2.172 1.629 0.0 0.132
248 1 2.172 1.9005 0.0 0.132
249 1 2.172 2.172 0.0 0.132
250 1 2.172 2.4435000000000002 0.0 0.132
251 1 2.172 2.7150000000000003 0.0 0.132
252 1 2.172 2.9865000000000004 0.0 0.132
253 1 2.172 3.258 0.0 0.132
254 1 2.172 3.5295 0.0 0.132
255 1 2.172 3.801 0.0 0.132
256 1 2.30775 0.13575 0.0 0.132
257 1 2.30775 0.40725 0.0 0.132
258 1 2.30775 0.6787500000000001 0.0 0.132
259 1 2.30775 0.95025 0.0 0.132
260 1 2.30775 1.2217500000000001 0.0 0.132
261 1 2.30775 1.4932500000000002 0.0 0.132
262 1 2.30775 1.76475 0.0 0.132
263 1 2.30775 2.0362500000000003 0.0 0.132
264 1 2.30775 2.30775 0.0 0.132
265 1 2.30775 2.57925 0.0 0.132
266 1 2.30775 2.85075 0.0 0.132
267 1 2.30775 3.12225 0.0 0.132
268 1 2.30775 3.3937500000000003 0.0 0.132
269 1 2.30775 3.6652500000000003 0.0 0.132
270 1 2.30775 3.9367500000000004 0.0 0.132
271 1 2.4435000000000002 0.0 0.0 0.132
272 1 2.4435000000000002 0.2715 0.0 0.132
273 1 2.4435000000000002 0.543 0.0 0.132
274 1 2.4435000000000002 0.8145 0.0 0.132
275 1 2.4435000000000002 1.086 0.0 0.132
276 1 2.4435000000000002 1.3575000000000002 0.0 0.132
277 1 2.4435000000000002 1.629 0.0 0.132
278 1 2.4435000000000002 1.9005 0.0 0.132
279 1 2.4435000000000002 2.172 0.0 0.132
280 1 2.4435000000000002 2.4435000000000002 0.0 0.132
281 1 2.4435000000000002 2.7150000000000003 0.0 0.132
282 1 2.4435000000000002 2.9865000000000004 0.0 0.132
283 1 2.4435000000000002 3.258 0.0 0.132
284 1 2.4435000000000002 3.5295 0.0 0.132
285 1 2.4435000000000002 3.801 0.0 0.132
286 1 2.57925 0.13575 0.0 0.132
287 1 2.57925 0.40725 0.0 0.132
288 1 2.57925 0.6787500000000001 0.0 0.132
289 1 2.57925 0.95025 0.0 0.132
290 1 2.57925 1.2217500000000001 0.0 0.132
291 1 2.57925 1.4932500000000002 0.0 0.132
292 1 2.57925 1.76475 0.0 0.132
293 1 2.57925 2.0362500000000003 0.0 0.132
294 1 2.57925 2.30775 0.0 0.132
295 1 2.57925 2.57925 0.0 0.132
296 1 2.57925 2.85075 0.0 0.132
297 1 2.57925 3.12225 0.0 0.132
298 1 2.57925 3.3937500000000003 0.0 0.132
299 1 2.57925 3.6652500000000003 0.0 0.132
300 1 2.57925 3.9367500000000004 0.0 0.132
301 1 2.7150000000000003 0.0 0.0 0.132
302 1 2.7150000000000003 0.2715 0.0 0.132
303 1 2.7150000000000003 0.543 0.0 0.132
304 1 2.7150000000000003 0.8145 0.0 0.132
305 1 2.7150000000000003 1.086 0.0 0.132
306 1 2.7150000000000003 1.3575000000000002 0.0 0.132
307 1 2.7150000000000003 1.629 0.0 0.132
308 1 2.7150000000000003 1.9005 0.0 0.132
309 1 2.7150000000000003 2.172 0.0 0.132
310 1 2.7150000000000003 2.4435000000000002 0.0 0.132
311 1 2.7150000000000003 2.7150000000000003 0.0 0.132
312 1 2.7150000000000003 2.9865000000000004 0.0 0.132
313 1 2.7150000000000003 3.258 0.0 0.132
314 1 2.7150000000000003 3.5295 0.0 0.132
315 1 2.7150000000000003 3.801 0.0 0.132
316 1 2.85075 0.13575 0.0 0.132
317 1 2.85075 0.40725 0.0 0.132
318 1 2.85075 0.6787500000000001 0.0 0.132
319 1 2.85075 0.95025 0.0 0.132
320 1 2.85075 1.2217500000000001 0.0 0.132
321 1 2.85075 1.4932500000000002 0.0 0.132
322 1 2.85075 1.76475 0.0 0.132
323 1 2.85075 2.0362500000000003 0.0 0.132
324 1 2.85075 2.30775 0.0 0.132
325 1 2.85075 2.57925 0.0 0.132
326 1 2.85075 2.85075 0.0 0.132
327 1 2.85075 3.12225 0.0 0.132
328 1 2.85075 3.3937500000000003 0.0 0.132
329 1 2.85075 3.6652500000000003 0.0 0.132
330 1 2.85075 3.9367500000000004 0.0 0.132
331 1 2.9865000000000004 0.0 0.0 0.132
332 1 2.9865000000000004 0.2715 0.0 0.132
333 1 2.9865000000000004 0.543 0.0 0.132
334 1 2.9865000000000004 0.8145 0.0 0.132
335 1 2.9865000000000004 1.086 0.0 0.132
336 1 2.9865000000000004 1.3575000000000002 0.0 0.132
337 1 2.9865000000000004 1.629 0.0 0.132
338 1 2.9865000000000004 1.9005 0.0 0.132
339 1 2.9865000000000004 2.172 0.0 0.132
340 1 2.9865000000000004 2.4435000000000002 0.0 0.132
341 1 2.9865000000000004 2.7150000000000003 0.0 0.132
342 1 2.9865000000000004 2.9865000000000004 0.0 0.132
343 1 2.9865000000000004 3.258 0.0 0.132
344 1 2.9865000000000004 3.5295 0.0 0.132
345 1 2.9865000000000004 3.801 0.0 0.132
346 1 3.12225 0.13575 0.0 0.132
347 1 3.12225 0.40725 0.0 0.132
348 1 3.12225 0.6787500000000001 0.0 0.132
349 1 3.12225 0.95025 0.0 0.132
350 1 3.12225 1.2217500000000001 0.0 0.132
351 1 3.12225 1.4932500000000002 0.0 0.132
352 1 3.12225 1.76475 0.0 0.132
353 1 3.12225 2.0362500000000003 0.0 0.132
354 1 3.12225 2.30775 0.0 0.132
355 1 3.12225 2.57925 0.0 0.132
356 1 3.12225 2.85075 0.0 0.132
357 1 3.12225 3.12225 0.0 0.132
358 1 3.12225 3.3937500000000003 0.0 0.132
359 1 3.12225 3.6652500000000003 0.0 0.132
360 1 3.12225 3.9367500000000004 0.0 0.132
361 1 3.258 0.0 0.0 0.132
362 1 3.258 0.2715 0.0 0.132
363 1 3.258 0.543 0.0 0.132
364 1 3.258 0.8145 0.0 0.132
365 1 3.258 1.086 0.0 0.132
366 1 3.258 1.3575000000000002 0.0 0.132
367 1 3.258 1.629 0.0 0.132
368 1 3.258 1.9005 0.0 0.132
369 1 3.258 2.172 0.0 0.132
370 1 3.258 2.4435000000000002 0.0 0.132
371 1 3.258 2.7150000000000003 0.0 0.132
372 1 3.258 2.9865000000000004 0.0 0.132
373 1 3.258 3.258 0.0 0.132
374 1 3.258 3.5295 0.0 0.132
375 1 3.258 3.801 0.0 0.132
376 1 3.3937500000000003 0.13575 0.0 0.132
377 1 3.3937500000000003 0.40725 0.0 0.132
378 1 3.3937500000000003 0.6787500000000001 0.0 0.132
379 1 3.3937500000000003 0.95025 0.0 0.132
380 1 3.3937500000000003 1.2217500000000001 0.0 0.132
381 1 3.3937500000000003 1.4932500000000002 0.0 0.132
382 1 3.3937500000000003 1.76475 0.0 0.132
383 1 3.3937500000000003 2.0362500000000003 0.0 0.132
384 1 3.3937500000000003 2.30775 0.0 0.132
385 1 3.3937500000000003 2.57925 0.0 0.132
386 1 3.3937500000000003 2.85075 0.0 0.132
387 1 3.3937500000000003 3.12225 0.0 0.132
388 1 3.3937500000000003 3.3937500000000003 0.0 0.132
389 1 3.3937500000000003 3.6652500000000003 0.0 0.132
390 1 3.3937500000000003 3.9367500000000004 0.0 0.132
391 1 3.5295 0.0 0.0 0.132
392 1 3.5295 0.2715 0.0 0.132
393 1 3.5295 0.543 0.0 0.132
394 1 3.5295 0.8145 0.0 0.132
395 1 3.5295 1.086 0.0 0.132
396 1 3.5295 1.3575000000000002 0.0 0.132
397 1 3.5295 1.629 0.0 0.132
398 1 3.5295 1.9005 0.0 0.132
399 1 3.5295 2.172 0.0 0.132
400 1 3.5295 2.4435000000000002 0.0 0.132
401 1 3.5295 2.7150000000000003 0.0 0.132
402 1 3.5295 2.9865000000000004 0.0 0.132
403 1 3.5295 3.258 0.0 0.132
404 1 3.5295 3.5295 0.0 0.132
405 1 3.5295 3.801 0.0 0.132
406 1 3.6652500000000003 0.13575 0.0 0.132
407 1 3.6652500000000003 0.40725 0.0 0.132
408 1 3.6652500000000003 0.6787500000000001 0.0 0.132
409 1 3.6652500000000003 0.95025 0.0 0.132
410 1 3.6652500000000003 1.2217500000000001 0.0 0.132
411 1 3.6652500000000003 1.4932500000000002 0.0 0.132
412 1 3.6652500000000003 1.76475 0.0 0.132
413 1 3.6652500000000003 2.0362500000000003 0.0 0.132
414 1 3.6652500000000003 2.30775 0.0 0.132
415 1 3.6652500000000003 2.57925 0.0 0.132
416 1 3.6652500000000003 2.85075 0.0 0.132
417 1 3.6652500000000003 3.12225 0.0 0.132
418 1 3.6652500000000003 3.3937500000000003 0.0 0.132
419 1 3.6652500000000003 3.6652500000000003 0.0 0.132
420 1 3.6652500000000003 3.9367500000000004 0.0 0.132
421 1 3.801 0.0 0.0 0.132
422 1 3.801 0.2715 0.0 0.132
423 1 3.801 0.543 0.0 0.132
424 1 3.801 0.8145 0.0 0.132
425 1 3.801 1.086 0.0 0.132
426 1 3.801 1.3575000000000002 0.0 0.132
427 1 3.801 1.629 0.0 0.132
428 1 3.801 1.9005 0.0 0.132
429 1 3.801 2.172 0.0 0.132
430 1 3.801 2.4435000000000002 0.0 0.132
431 1 3.801 2.7150000000000003 0.0 0.132
432 1 3.801 2.9865000000000004 0.0 0.132
433 1 3.801 3.258 0.0 0.132
434 1 3.801 3.5295 0.0 0.132
435 1 3.801 3.801 0.0 0.132
436 1 3.9367500000000004 0.13575 0.0 0.132
437 1 3.9367500000000004 0.40725 0.0 0.132
438 1 3.9367500000000004 0.6787500000000001 0.0 0.132
439 1 3.9367500000000004 0.95025 0.0 0.132
440 1 3.9367500000000004 1.2217500000000001 0.0 0.132
441 1 3.9367500000000004 1.4932500000000002 0.0 0.132
442 1 3.9367500000000004 1.76475 0.0 0.132
443 1 3.9367500000000004 2.0362500000000003 0.0 0.132
444 1 3.9367500000000004 2.30775 0.0 0.132
445 1 3.9367500000000004 2.57925 0.0 0.132
446 1 3.9367500000000004 2.85075 0.0 0.132
447 1 3.9367500000000004 3.12225 0.0 0.132
448 1 3.9367500000000004 3.3937500000000003 0.0 0.132
449 1 3.9367500000000004 3.6652500000000003 0.0 0.132
450 1 3.9367500000000004 3.9367500000000004 0.0 0.132
451 1 0.0 0.13575 0.13575 0.132
452 1 0.0 0.6787500000000001 0.13575 0.132
453 1 0.0 1.2217500000000001 0.13575 0.132
454 1 0.0 1.4932500000000002 0.13575 0.132
455 1 0.0 1.76475 0.13575 0.132
456 1 0.0 2.30775 0.13575 0.132
457 1 0.0 2.85075 0.13575 0.132
458 1 0.0 3.12225 0.13575 0.132
459 1 0.0 3.3937500000000003 0.13575 0.132
460 1 0.13575 0.0 0.13575 0.132
461 1 0.13575 0.2715 0.13575 0.132
462 1 0.13575 1.086 0.13575 0.132
463 1 0.13575 1.3575000000000002 0.13575 0.132
464 1 0.13575 1.629 0.13575 0.132
465 1 0.13575 2.172 0.13575 0.132
466 1 0.13575 2.9865000000000004 0.13575 0.132
467 1 0.13575 3.258 0.13575 0.132
468 1 0.13575 3.5295 0.13575 0.132
469 1 0.13575 3.801 0.13575 0.132
470 1 0.2715 0.13575 0.13575 0.132
471 1 0.2715 0.6787500000000001 0.13575 0.132
472 1 0.2715 1.2217500000000001 0.13575 0.132
473 1 0.2715 1.4932500000000002 0.13575 0.132
474 1 0.2715 1.76475 0.13575 0.132
475 1 0.2715 2.0362500000000003 0.13575 0.132
476 1 0.2715 2.30775 0.13575 0.132
477 1 0.2715 2.85075 0.13575 0.132
478 1 0.2715 3.3937500000000003 0.13575 0.132
479 1 0.2715 3.9367500000000004 0.13575 0.132
480 1 0.40725 0.0 0.13575 0.132
481 1 0.40725 0.2715 0.13575 0.132
482 1 0.40725 0.8145 0.13575 0.132
483 1 0.40725 1.3575000000000002 0.13575 0.132
484 1 0.40725 1.629 0.13575 0.132
485 1 0.40725 1.9005 0.13575 0.132
486 1 0.40725 2.172 0.13575 0.132
487 1 0.40725 2.4435000000000002 0.13575 0.132
488 1 0.40725 2.7150000000000003 0.13575 0.132
489 1 0.40725 2.9865000000000004 0.13575 0.132
490 1 0.40725 3.801 0.13575 0.132
491 1 0.543 0.13575 0.13575 0.132
492 1 0.543 0.40725 0.13575 0.132
493 1 0.543 0.6787500000000001 0.13575 0.132
494 1 0.543 0.95025 0.13575 0.132
495 1 0.543 1.4932500000000002 0.13575 0.132
496 1 0.543 1.76475 0.13575 0.132
497 1 0.543 2.0362500000000003 0.13575 0.132
498 1 0.543 2.30775 0.13575 0.132
499 1 0.543 2.57925 0.13575 0.132
500 1 0.543 2.85075 0.13575 0.132
501 1 0.543 3.3937500000000003 0.13575 0.132
502 1 0.543 3.6652500000000003 0.13575 0.132
503 1 0.543 3.9367500000000004 0.13575 0.132
504 1 0.6787500000000001 0.0 0.13575 0.132
505 1 0.6787500000000001 0.2715 0.13575 0.132
506 1 0.6787500000000001 0.543 0.13575 0.132
507 1 0.6787500000000001 1.086 0.13575 0.132
508 1 0.6787500000000001 1.3575000000000002 0.13575 0.132
509 1 0.6787500000000001 1.629 0.13575 0.132
510 1 0.6787500000000001 2.4435000000000002 0.13575 0.132
511 1 0.6787500000000001 2.7150000000000003 0.13575 0.132
512 1 0.6787500000000001 2.9865000000000004 0.13575 0.132
513 1 0.6787500000000001 3.258 0.13575 0.132
514 1 0.6787500000000001 3.5295 0.13575 0.132
515 1 0.6787500000000001 3.801 0.13575 0.132
516 1 0.8145 0.13575 0.13575 0.132
517 1 0.8145 0.6787500000000001 0.13575 0.132
518 1 0.8145 0.95025 0.13575 0.132
519 1 0.8145 1.2217500000000001 0.13575 0.132
520 1 0.8145 2.30775 0.13575 0.132
521 1 0.8145 2.57925 0.13575 0.132
522 1 0.8145 2.85075 0.13575 0.132
523 1 0.8145 3.12225 0.13575 0.132
524 1 0.8145 3.3937500000000003 0.13575 0.132
525 1 0.8145 3.6652500000000003 0.13575 0.132
526 1 0.8145 3.9367500000000004 0.13575 0.132
527 1 0.95025 0.0 0.13575 0.132
528 1 0.95025 0.543 0.13575 0.132
529 1 0.95025 0.8145 0.13575 0.132
530 1 0.95025 1.086 0.13575 0.132
531 1 0.95025 1.3575000000000002 0.13575 0.132
532 1 0.95025 1.629 0.13575 0.132
533 1 0.95025 1.9005 0.13575 0.132
534 1 0.95025 2.172 0.13575 0.132
535 1 0.95025 2.4435000000000002 0.13575 0.132
536 1 0.95025 2.7150000000000003 0.13575 0.132
537 1 0.95025 2.9865000000000004 0.13575 0.132
538 1 0.95025 3.258 0.13575 0.132
539 1 0.95025 3.5295 0.13575 0.132
540 1 0.95025 3.801 0.13575 0.132
541 1 1.086 0.13575 0.13575 0.132
542 1 1.086 0.40725 0.13575 0.132
543 1 1.086 0.6787500000000001 0.13575 0.132
544 1 1.086 0.95025 0.13575 0.132
545 1 1.086 1.2217500000000001 0.13575 0.132
546 1 1.086 1.76475 0.13575 0.132
547 1 1.086 2.0362500000000003 0.13575 0.132
548 1 1.086 2.30775 0.13575 0.132
549 1 1.086 2.57925 0.13575 0.132
550 1 1.086 2.85075 0.13575 0.132
551 1 1.086 3.6652500000000003 0.13575 0.132
552 1 1.086 3.9367500000000004 0.13575 0.132
553 1 1.2217500000000001 0.2715 0.13575 0.132
554 1 1.2217500000000001 0.543 0.13575 0.132
555 1 1.2217500000000001 1.086 0.13575 0.132
556 1 1.2217500000000001 1.3575000000000002 0.13575 0.132
557 1 1.2217500000000001 1.629 0.13575 0.132
558 1 1.2217500000000001 2.172 0.13575 0.132
559 1 1.2217500000000001 2.4435000000000002 0.13575 0.132
560 1 1.2217500000000001 2.7150000000000003 0.13575 0.132
561 1 1.2217500000000001 2.9865000000000004 0.13575 0.132
562 1 1.2217500000000001 3.258 0.13575 0.132
563 1 1.2217500000000001 3.5295 0.13575 0.132
564 1 1.2217500000000001 3.801 0.13575 0.132
565 1 1.3575000000000002 0.13575 0.13575 0.132
566 1 1.3575000000000002 0.40725 0.13575 0.132
567 1 1.3575000000000002 0.6787500000000001 0.13575 0.132
568 1 1.3575000000000002 0.95025 0.13575 0.132
569 1 1.3575000000000002 1.2217500000000001 0.13575 0.132
570 1 1.3575000000000002 1.4932500000000002 0.13575 0.132
571 1 1.3575000000000002 1.76475 0.13575 0.132
572 1 1.3575000000000002 2.0362500000000003 0.13575 0.132
573 1 1.3575000000000002 2.30775 0.13575 0.132
574 1 1.3575000000000002 3.6652500000000003 0.13575 0.132
575 1 1.3575000000000002 3.9367500000000004 0.13575 0.132
576 1 1.4932500000000002 0.2715 0.13575 0.132
577 1 1.4932500000000002 0.543 0.13575 0.132
578 1 1.4932500000000002 0.8145 0.13575 0.132
579 1 1.4932500000000002 1.3575000000000002 0.13575 0.132
580 1 1.4932500000000002 1.9005 0.13575 0.132
581 1 1.4932500000000002 2.172 0.13575 0.132
582 1 1.4932500000000002 2.4435000000000002 0.13575 0.132
583 1 1.4932500000000002 2.7150000000000003 0.13575 0.132
584 1 1.4932500000000002 3.5295 0.13575 0.132
585 1 1.4932500000000002 3.801 0.13575 0.132
586 1 1.629 0.13575 0.13575 0.132
587 1 1.629 0.40725 0.13575 0.132
588 1 1.629 0.6787500000000001 0.13575 0.132
589 1 1.629 0.95025 0.13575 0.132
590 1 1.629 1.2217500000000001 0.13575 0.132
591 1 1.629 1.4932500000000002 0.13575 0.132
592 1 1.629 1.76475 0.13575 0.132
593 1 1.629 2.0362500000000003 0.13575 0.132
594 1 1.629 2.30775 0.13575 0.132
595 1 1.629 2.57925 0.13575 0.132
596 1 1.629 2.85075 0.13575 0.132
597 1 1.629 3.3937500000000003 0.13575 0.132
598 1 1.629 3.6652500000000003 0.13575 0.132
599 1 1.629 3.9367500000000004 0.13575 0.132
600 1 1.76475 0.0 0.13575 0.132
601 1 1.76475 0.2715 0.13575 0.132
602 1 1.76475 0.543 0.13575 0.132
603 1 1.76475 1.086 0.13575 0.132
604 1 1.76475 1.3575000000000002 0.13575 0.132
605 1 1.76475 1.629 0.13575 0.132
606 1 1.76475 1.9005 0.13575 0.132
607 1 1.76475 2.172 0.13575 0.132
608 1 1.76475 2.4435000000000002 0.13575 0.132
609 1 1.76475 2.7150000000000003 0.13575 0.132
610 1 1.76475 2.9865000000000004 0.13575 0.132
611 1 1.76475 3.258 0.13575 0.132
612 1 1.76475 3.5295 0.13575 0.132
613 1 1.9005 0.13575 0.13575 0.132
614 1 1.9005 0.40725 0.13575 0.132
615 1 1.9005 0.6787500000000001 0.13575 0.132
616 1 1.9005 1.2217500000000001 0.13575 0.132
617 1 1.9005 1.4932500000000002 0.13575 0.132
618 1 1.9005 1.76475 0.13575 0.132
619 1 1.9005 2.0362500000000003 0.13575 0.132
620 1 1.9005 2.30775 0.13575 0.132
621 1 1.9005 2.57925 0.13575 0.132
622 1 1.9005 2.85075 0.13575 0.132
623 1 1.9005 3.12225 0.13575 0.132
624 1 1.9005 3.3937500000000003 0.13575 0.132
625 1 1.9005 3.9367500000000004 0.13575 0.132
626 1 2.0362500000000003 0.0 0.13575 0.132
627 1 2.0362500000000003 0.2715 0.13575 0.132
628 1 2.0362500000000003 0.543 0.13575 0.132
629 1 2.0362500000000003 1.086 0.13575 0.132
630 1 2.0362500000000003 1.3575000000000002 0.13575 0.132
631 1 2.0362500000000003 1.629 0.13575 0.132
632 1 2.0362500000000003 1.9005 0.13575 0.132
633 1 2.0362500000000003 2.172 0.13575 0.132
634 1 2.0362500000000003 2.4435000000000002 0.13575 0.132
635 1 2.0362500000000003 2.7150000000000003 0.13575 0.132
636 1 2.0362500000000003 2.9865000000000004 0.13575 0.132
637 1 2.0362500000000003 3.258 0.13575 0.132
638 1 2.0362500000000003 3.5295 0.13575 0.132
639 1 2.0362500000000003 3.801 0.13575 0.132
640 1 2.172 0.13575 0.13575 0.132
641 1 2.172 0.40725 0.13575 0.132
642 1 2.172 0.95025 0.13575 0.132
643 1 2.172 1.2217500000000001 0.13575 0.132
644 1 2.172 1.76475 0.13575 0.132
645 1 2.172 2.0362500000000003 0.13575 0.132
646 1 2.172 2.30775 0.13575 0.132
647 1 2.172 2.57925 0.13575 0.132
648 1 2.172 2.85075 0.13575 0.132
649 1 2.172 3.3937500000000003 0.13575 0.132
650 1 2.172 3.6652500000000003 0.13575 0.132
651 1 2.30775 0.0 0.13575 0.132
652 1 2.30775 0.543 0.13575 0.132
653 1 2.30775 1.086 0.13575 0.132
654 1 2.30775 1.629 0.13575 0.132
655 1 2.30775 1.9005 0.13575 0.132
656 1 2.30775 2.172 0.13575 0.132
657 1 2.30775 2.7150000000000003 0.13575 0.132
658 1 2.30775 2.9865000000000004 0.13575 0.132
659 1 2.30775 3.258 0.13575 0.132
660 1 2.30775 3.5295 0.13575 0.132
661 1 2.30775 3.801 0.13575 0.132
662 1 2.4435000000000002 0.40725 0.13575 0.132
663 1 2.4435000000000002 0.6787500000000001 0.13575 0.132
664 1 2.4435000000000002 0.95025 0.13575 0.132
665 1 2.4435000000000002 1.2217500000000001 0.13575 0.132
666 1 2.4435000000000002 1.4932500000000002 0.13575 0.132
667 1 2.4435000000000002 1.76475 0.13575 0.132
668 1 2.4435000000000002 2.0362500000000003 0.13575 0.132
669 1 2.4435000000000002 2.30775 0.13575 0.132
670 1 2.4435000000000002 2.57925 0.13575 0.132
671 1 2.4435000000000002 2.85075 0.13575 0.132
672 1 2.4435000000000002 3.12225 0.13575 0.132
673 1 2.4435000000000002 3.3937500000000003 0.13575 0.132
674 1 2.4435000000000002 3.6652500000000003 0.13575 0.132
675 1 2.4435000000000002 3.9367500000000004 0.13575 0.132
676 1 2.57925 0.0 0.13575 0.132
677 1 2.57925 0.2715 0.13575 0.132
678 1 2.57925 0.543 0.13575 0.132
679 1 2.57925 0.8145 0.13575 0.132
680 1 2.57925 1.086 0.13575 0.132
681 1 2.57925 1.3575000000000002 0.13575 0.132
682 1 2.57925 1.629 0.13575 0.132
683 1 2.57925 1.9005 0.13575 0.132
684 1 2.57925 2.172 0.13575 0.132
685 1 2.57925 2.4435000000000002 0.13575 0.132
686 1 2.57925 2.7150000000000003 0.13575 0.132
687 1 2.57925 2.9865000000000004 0.13575 0.132
688 1 2.57925 3.258 0.13575 0.132
689 1 2.57925 3.5295 0.13575 0.132
690 1 2.57925 3.801 0.13575 0.132
691 1 2.7150000000000003 0.13575 0.13575 0.132
692 1 2.7150000000000003 0.6787500000000001 0.13575 0.132
693 1 2.7150000000000003 0.95025 0.13575 0.132
694 1 2.7150000000000003 1.2217500000000001 0.13575 0.132
695 1 2.7150000000000003 1.4932500000000002 0.13575 0.132
696 1 2.7150000000000003 1.76475 0.13575 0.132
697 1 2.7150000000000003 2.0362500000000003 0.13575 0.132
698 1 2.7150000000000003 2.30775 0.13575 0.132
699 1 2.7150000000000003 2.57925 0.13575 0.132
700 1 2.7150000000000003 2.85075 0.13575 0.132
701 1 2.7150000000000003 3.12225 0.13575 0.132
702 1 2.7150000000000003 3.3937500000000003 0.13575 0.132
703 1 2.7150000000000003 3.6652500000000003 0.13575 0.132
704 1 2.7150000000000003 3.9367500000000004 0.13575 0.132
705 1 2.85075 0.0 0.13575 0.132
706 1 2.85075 0.2715 0.13575 0.132
707 1 2.85075 0.543 0.13575 0.132
708 1 2.85075 0.8145 0.13575 0.132
709 1 2.85075 1.086 0.13575 0.132
710 1 2.85075 1.3575000000000002 0.13575 0.132
711 1 2.85075 1.629 0.13575 0.132
712 1 2.85075 2.172 0.13575 0.132
713 1 2.85075 2.4435000000000002 0.13575 0.132
714 1 2.85075 2.9865000000000004 0.13575 0.132
715 1 2.85075 3.258 0.13575 0.132
716 1 2.85075 3.5295 0.13575 0.132
717 1 2.85075 3.801 0.13575 0.132
718 1 2.9865000000000004 0.13575 0.13575 0.132
719 1 2.9865000000000004 0.40725 0.13575 0.132
720 1 2.9865000000000004 0.95025 0.13575 0.132
721 1 2.9865000000000004 1.2217500000000001 0.13575 0.132
722 1 2.9865000000000004 1.4932500000000002 0.13575 0.132
723 1 2.9865000000000004 1.76475 0.13575 0.132
724 1 2.9865000000000004 2.0362500000000003 0.13575 0.132
725 1 2.9865000000000004 2.30775 0.13575 0.132
726 1 2.9865000000000004 2.57925 0.13575 0.132
727 1 2.9865000000000004 2.85075 0.13575 0.132
728 1 2.9865000000000004 3.12225 0.13575 0.132
729 1 2.9865000000000004 3.3937500000000003 0.13575 0.132
730 1 2.9865000000000004 3.6652500000000003 0.13575 0.132
731 1 2.9865000000000004 3.9367500000000004 0.13575 0.132
732 1 3.12225 0.0 0.13575 0.132
733 1 3.12225 0.2715 0.13575 0.132
734 1 3.12225 0.543 0.13575 0.132
735 1 3.12225 0.8145 0.13575 0.132
736 1 3.12225 1.086 0.13575 0.132
737 1 3.12225 1.3575000000000002 0.13575 0.132
738 1 3.12225 1.629 0.13575 0.132
739 1 3.12225 1.9005 0.13575 0.132
740 1 3.12225 2.172 0.13575 0.132
741 1 3.12225 2.4435000000000002 0.13575 0.132
742 1 3.12225 2.7150000000000003 0.13575 0.132