# Header 
32138 atoms

   1 atom types

0.0 86.88 xlo xhi
0.0 86.88 ylo yhi
0.0 86.88 zlo zhi
0.000000 0.000000 0.000000 xy xz yz

Masses

1 28.0855

Atoms

1 1 0.0 0.0 0.0
2 1 0.0 5.43 0.0
3 1 0.0 10.86 0.0
4 1 0.0 16.29 0.0
5 1 0.0 21.72 0.0
6 1 0.0 27.15 0.0
7 1 0.0 32.58 0.0
8 1 0.0 38.01 0.0
9 1 0.0 43.44 0.0
10 1 0.0 48.87 0.0
11 1 0.0 54.3 0.0
12 1 0.0 59.73 0.0
13 1 0.0 65.16 0.0
14 1 0.0 70.59 0.0
15 1 0.0 76.02 0.0
16 1 0.0 81.44999999999999 0.0
17 1 2.715 2.715 0.0
18 1 2.715 8.145 0.0
19 1 2.715 13.575 0.0
20 1 2.715 19.005 0.0
21 1 2.715 24.435 0.0
22 1 2.715 29.865 0.0
23 1 2.715 35.295 0.0
24 1 2.715 40.724999999999994 0.0
25 1 2.715 46.155 0.0
26 1 2.715 51.584999999999994 0.0
27 1 2.715 57.015 0.0
28 1 2.715 62.44499999999999 0.0
29 1 2.715 67.875 0.0
30 1 2.715 73.30499999999999 0.0
31 1 2.715 78.735 0.0
32 1 2.715 84.16499999999999 0.0
33 1 5.43 0.0 0.0
34 1 5.43 5.43 0.0
35 1 5.43 10.86 0.0
36 1 5.43 16.29 0.0
37 1 5.43 21.72 0.0
38 1 5.43 27.15 0.0
39 1 5.43 32.58 0.0
40 1 5.43 38.01 0.0
41 1 5.43 43.44 0.0
42 1 5.43 48.87 0.0
43 1 5.43 54.3 0.0
44 1 5.43 59.73 0.0
45 1 5.43 65.16 0.0
46 1 5.43 70.59 0.0
47 1 5.43 76.02 0.0
48 1 5.43 81.44999999999999 0.0
49 1 8.145 2.715 0.0
50 1 8.145 8.145 0.0
51 1 8.145 13.575 0.0
52 1 8.145 19.005 0.0
53 1 8.145 24.435 0.0
54 1 8.145 29.865 0.0
55 1 8.145 35.295 0.0
56 1 8.145 40.724999999999994 0.0
57 1 8.145 46.155 0.0
58 1 8.145 51.584999999999994 0.0
59 1 8.145 57.015 0.0
60 1 8.145 62.44499999999999 0.0
61 1 8.145 67.875 0.0
62 1 8.145 73.30499999999999 0.0
63 1 8.145 78.735 0.0
64 1 8.145 84.16499999999999 0.0
65 1 10.86 0.0 0.0
66 1 10.86 5.43 0.0
67 1 10.86 10.86 0.0
68 1 10.86 16.29 0.0
69 1 10.86 21.72 0.0
70 1 10.86 27.15 0.0
71 1 10.86 32.58 0.0
72 1 10.86 38.01 0.0
73 1 10.86 43.44 0.0
74 1 10.86 48.87 0.0
75 1 10.86 54.3 0.0
76 1 10.86 59.73 0.0
77 1 10.86 65.16 0.0
78 1 10.86 70.59 0.0
79 1 10.86 76.02 0.0
80 1 10.86 81.44999999999999 0.0
81 1 13.575 2.715 0.0
82 1 13.575 8.145 0.0
83 1 13.575 13.575 0.0
84 1 13.575 19.005 0.0
85 1 13.575 24.435 0.0
86 1 13.575 29.865 0.0
87 1 13.575 35.295 0.0
88 1 13.575 40.724999999999994 0.0
89 1 13.575 46.155 0.0
90 1 13.575 51.584999999999994 0.0
91 1 13.575 57.015 0.0
92 1 13.575 62.44499999999999 0.0
93 1 13.575 67.875 0.0
94 1 13.575 73.30499999999999 0.0
95 1 13.575 78.735 0.0
96 1 13.575 84.16499999999999 0.0
97 1 16.29 0.0 0.0
98 1 16.29 5.43 0.0
99 1 16.29 10.86 0.0
100 1 16.29 16.29 0.0
101 1 16.29 21.72 0.0
102 1 16.29 27.15 0.0
103 1 16.29 32.58 0.0
104 1 16.29 38.01 0.0
105 1 16.29 43.44 0.0
106 1 16.29 48.87 0.0
107 1 16.29 54.3 0.0
108 1 16.29 59.73 0.0
109 1 16.29 65.16 0.0
110 1 16.29 70.59 0.0
111 1 16.29 76.02 0.0
112 1 16.29 81.44999999999999 0.0
113 1 19.005 2.715 0.0
114 1 19.005 8.145 0.0
115 1 19.005 13.575 0.0
116 1 19.005 19.005 0.0
117 1 19.005 24.435 0.0
118 1 19.005 29.865 0.0
119 1 19.005 35.295 0.0
120 1 19.005 40.724999999999994 0.0
121 1 19.005 46.155 0.0
122 1 19.005 51.584999999999994 0.0
123 1 19.005 57.015 0.0
124 1 19.005 62.44499999999999 0.0
125 1 19.005 67.875 0.0
126 1 19.005 73.30499999999999 0.0
127 1 19.005 78.735 0.0
128 1 19.005 84.16499999999999 0.0
129 1 21.72 0.0 0.0
130 1 21.72 5.43 0.0
131 1 21.72 10.86 0.0
132 1 21.72 16.29 0.0
133 1 21.72 21.72 0.0
134 1 21.72 27.15 0.0
135 1 21.72 32.58 0.0
136 1 21.72 38.01 0.0
137 1 21.72 43.44 0.0
138 1 21.72 48.87 0.0
139 1 21.72 54.3 0.0
140 1 21.72 59.73 0.0
141 1 21.72 65.16 0.0
142 1 21.72 70.59 0.0
143 1 21.72 76.02 0.0
144 1 21.72 81.44999999999999 0.0
145 1 24.435 2.715 0.0
146 1 24.435 8.145 0.0
147 1 24.435 13.575 0.0
148 1 24.435 19.005 0.0
149 1 24.435 24.435 0.0
150 1 24.435 29.865 0.0
151 1 24.435 35.295 0.0
152 1 24.435 40.724999999999994 0.0
153 1 24.435 46.155 0.0
154 1 24.435 51.584999999999994 0.0
155 1 24.435 57.015 0.0
156 1 24.435 62.44499999999999 0.0
157 1 24.435 67.875 0.0
158 1 24.435 73.30499999999999 0.0
159 1 24.435 78.735 0.0
160 1 24.435 84.16499999999999 0.0
161 1 27.15 0.0 0.0
162 1 27.15 5.43 0.0
163 1 27.15 10.86 0.0
164 1 27.15 16.29 0.0
165 1 27.15 21.72 0.0
166 1 27.15 27.15 0.0
167 1 27.15 32.58 0.0
168 1 27.15 38.01 0.0
169 1 27.15 43.44 0.0
170 1 27.15 48.87 0.0
171 1 27.15 54.3 0.0
172 1 27.15 59.73 0.0
173 1 27.15 65.16 0.0
174 1 27.15 70.59 0.0
175 1 27.15 76.02 0.0
176 1 27.15 81.44999999999999 0.0
177 1 29.865 2.715 0.0
178 1 29.865 8.145 0.0
179 1 29.865 13.575 0.0
180 1 29.865 19.005 0.0
181 1 29.865 24.435 0.0
182 1 29.865 29.865 0.0
183 1 29.865 35.295 0.0
184 1 29.865 40.724999999999994 0.0
185 1 29.865 46.155 0.0
186 1 29.865 51.584999999999994 0.0
187 1 29.865 57.015 0.0
188 1 29.865 62.44499999999999 0.0
189 1 29.865 67.875 0.0
190 1 29.865 73.30499999999999 0.0
191 1 29.865 78.735 0.0
192 1 29.865 84.16499999999999 0.0
193 1 32.58 0.0 0.0
194 1 32.58 5.43 0.0
195 1 32.58 10.86 0.0
196 1 32.58 16.29 0.0
197 1 32.58 21.72 0.0
198 1 32.58 27.15 0.0
199 1 32.58 32.58 0.0
200 1 32.58 38.01 0.0
201 1 32.58 43.44 0.0
202 1 32.58 48.87 0.0
203 1 32.58 54.3 0.0
204 1 32.58 59.73 0.0
205 1 32.58 65.16 0.0
206 1 32.58 70.59 0.0
207 1 32.58 76.02 0.0
208 1 32.58 81.44999999999999 0.0
209 1 35.295 2.715 0.0
210 1 35.295 8.145 0.0
211 1 35.295 13.575 0.0
212 1 35.295 19.005 0.0
213 1 35.295 24.435 0.0
214 1 35.295 29.865 0.0
215 1 35.295 35.295 0.0
216 1 35.295 40.724999999999994 0.0
217 1 35.295 46.155 0.0
218 1 35.295 51.584999999999994 0.0
219 1 35.295 57.015 0.0
220 1 35.295 62.44499999999999 0.0
221 1 35.295 67.875 0.0
222 1 35.295 73.30499999999999 0.0
223 1 35.295 78.735 0.0
224 1 35.295 84.16499999999999 0.0
225 1 38.01 0.0 0.0
226 1 38.01 5.43 0.0
227 1 38.01 10.86 0.0
228 1 38.01 16.29 0.0
229 1 38.01 21.72 0.0
230 1 38.01 27.15 0.0
231 1 38.01 32.58 0.0
232 1 38.01 38.01 0.0
233 1 38.01 43.44 0.0
234 1 38.01 48.87 0.0
235 1 38.01 54.3 0.0
236 1 38.01 59.73 0.0
237 1 38.01 65.16 0.0
238 1 38.01 70.59 0.0
239 1 38.01 76.02 0.0
240 1 38.01 81.44999999999999 0.0
241 1 40.724999999999994 2.715 0.0
242 1 40.724999999999994 8.145 0.0
243 1 40.724999999999994 13.575 0.0
244 1 40.724999999999994 19.005 0.0
245 1 40.724999999999994 24.435 0.0
246 1 40.724999999999994 29.865 0.0
247 1 40.724999999999994 35.295 0.0
248 1 40.724999999999994 40.724999999999994 0.0
249 1 40.724999999999994 46.155 0.0
250 1 40.724999999999994 51.584999999999994 0.0
251 1 40.724999999999994 57.015 0.0
252 1 40.724999999999994 62.44499999999999 0.0
253 1 40.724999999999994 67.875 0.0
254 1 40.724999999999994 73.30499999999999 0.0
255 1 40.724999999999994 78.735 0.0
256 1 40.724999999999994 84.16499999999999 0.0
257 1 43.44 0.0 0.0
258 1 43.44 5.43 0.0
259 1 43.44 10.86 0.0
260 1 43.44 16.29 0.0
261 1 43.44 21.72 0.0
262 1 43.44 27.15 0.0
263 1 43.44 32.58 0.0
264 1 43.44 38.01 0.0
265 1 43.44 43.44 0.0
266 1 43.44 48.87 0.0
267 1 43.44 54.3 0.0
268 1 43.44 59.73 0.0
269 1 43.44 65.16 0.0
270 1 43.44 70.59 0.0
271 1 43.44 76.02 0.0
272 1 43.44 81.44999999999999 0.0
273 1 46.155 2.715 0.0
274 1 46.155 8.145 0.0
275 1 46.155 13.575 0.0
276 1 46.155 19.005 0.0
277 1 46.155 24.435 0.0
278 1 46.155 29.865 0.0
279 1 46.155 35.295 0.0
280 1 46.155 40.724999999999994 0.0
281 1 46.155 46.155 0.0
282 1 46.155 51.584999999999994 0.0
283 1 46.155 57.015 0.0
284 1 46.155 62.44499999999999 0.0
285 1 46.155 67.875 0.0
286 1 46.155 73.30499999999999 0.0
287 1 46.155 78.735 0.0
288 1 46.155 84.16499999999999 0.0
289 1 48.87 0.0 0.0
290 1 48.87 5.43 0.0
291 1 48.87 10.86 0.0
292 1 48.87 16.29 0.0
293 1 48.87 21.72 0.0
294 1 48.87 27.15 0.0
295 1 48.87 32.58 0.0
296 1 48.87 38.01 0.0
297 1 48.87 43.44 0.0
298 1 48.87 48.87 0.0
299 1 48.87 54.3 0.0
300 1 48.87 59.73 0.0
301 1 48.87 65.16 0.0
302 1 48.87 70.59 0.0
303 1 48.87 76.02 0.0
304 1 48.87 81.44999999999999 0.0
305 1 51.584999999999994 2.715 0.0
306 1 51.584999999999994 8.145 0.0
307 1 51.584999999999994 13.575 0.0
308 1 51.584999999999994 19.005 0.0
309 1 51.584999999999994 24.435 0.0
310 1 51.584999999999994 29.865 0.0
311 1 51.584999999999994 35.295 0.0
312 1 51.584999999999994 40.724999999999994 0.0
313 1 51.584999999999994 46.155 0.0
314 1 51.584999999999994 51.584999999999994 0.0
315 1 51.584999999999994 57.015 0.0
316 1 51.584999999999994 62.44499999999999 0.0
317 1 51.584999999999994 67.875 0.0
318 1 51.584999999999994 73.30499999999999 0.0
319 1 51.584999999999994 78.735 0.0
320 1 51.584999999999994 84.16499999999999 0.0
321 1 54.3 0.0 0.0
322 1 54.3 5.43 0.0
323 1 54.3 10.86 0.0
324 1 54.3 16.29 0.0
325 1 54.3 21.72 0.0
326 1 54.3 27.15 0.0
327 1 54.3 32.58 0.0
328 1 54.3 38.01 0.0
329 1 54.3 43.44 0.0
330 1 54.3 48.87 0.0
331 1 54.3 54.3 0.0
332 1 54.3 59.73 0.0
333 1 54.3 65.16 0.0
334 1 54.3 70.59 0.0
335 1 54.3 76.02 0.0
336 1 54.3 81.44999999999999 0.0
337 1 57.015 2.715 0.0
338 1 57.015 8.145 0.0
339 1 57.015 13.575 0.0
340 1 57.015 19.005 0.0
341 1 57.015 24.435 0.0
342 1 57.015 29.865 0.0
343 1 57.015 35.295 0.0
344 1 57.015 40.724999999999994 0.0
345 1 57.015 46.155 0.0
346 1 57.015 51.584999999999994 0.0
347 1 57.015 57.015 0.0
348 1 57.015 62.44499999999999 0.0
349 1 57.015 67.875 0.0
350 1 57.015 73.30499999999999 0.0
351 1 57.015 78.735 0.0
352 1 57.015 84.16499999999999 0.0
353 1 59.73 0.0 0.0
354 1 59.73 5.43 0.0
355 1 59.73 10.86 0.0
356 1 59.73 16.29 0.0
357 1 59.73 21.72 0.0
358 1 59.73 27.15 0.0
359 1 59.73 32.58 0.0
360 1 59.73 38.01 0.0
361 1 59.73 43.44 0.0
362 1 59.73 48.87 0.0
363 1 59.73 54.3 0.0
364 1 59.73 59.73 0.0
365 1 59.73 65.16 0.0
366 1 59.73 70.59 0.0
367 1 59.73 76.02 0.0
368 1 59.73 81.44999999999999 0.0
369 1 62.44499999999999 2.715 0.0
370 1 62.44499999999999 8.145 0.0
371 1 62.44499999999999 13.575 0.0
372 1 62.44499999999999 19.005 0.0
373 1 62.44499999999999 24.435 0.0
374 1 62.44499999999999 29.865 0.0
375 1 62.44499999999999 35.295 0.0
376 1 62.44499999999999 40.724999999999994 0.0
377 1 62.44499999999999 46.155 0.0
378 1 62.44499999999999 51.584999999999994 0.0
379 1 62.44499999999999 57.015 0.0
380 1 62.44499999999999 62.44499999999999 0.0
381 1 62.44499999999999 67.875 0.0
382 1 62.44499999999999 73.30499999999999 0.0
383 1 62.44499999999999 78.735 0.0
384 1 62.44499999999999 84.16499999999999 0.0
385 1 65.16 0.0 0.0
386 1 65.16 5.43 0.0
387 1 65.16 10.86 0.0
388 1 65.16 16.29 0.0
389 1 65.16 21.72 0.0
390 1 65.16 27.15 0.0
391 1 65.16 32.58 0.0
392 1 65.16 38.01 0.0
393 1 65.16 43.44 0.0
394 1 65.16 48.87 0.0
395 1 65.16 54.3 0.0
396 1 65.16 59.73 0.0
397 1 65.16 65.16 0.0
398 1 65.16 70.59 0.0
399 1 65.16 76.02 0.0
400 1 65.16 81.44999999999999 0.0
401 1 67.875 2.715 0.0
402 1 67.875 8.145 0.0
403 1 67.875 13.575 0.0
404 1 67.875 19.005 0.0
405 1 67.875 24.435 0.0
406 1 67.875 29.865 0.0
407 1 67.875 35.295 0.0
408 1 67.875 40.724999999999994 0.0
409 1 67.875 46.155 0.0
410 1 67.875 51.584999999999994 0.0
411 1 67.875 57.015 0.0
412 1 67.875 62.44499999999999 0.0
413 1 67.875 67.875 0.0
414 1 67.875 73.30499999999999 0.0
415 1 67.875 78.735 0.0
416 1 67.875 84.16499999999999 0.0
417 1 70.59 0.0 0.0
418 1 70.59 5.43 0.0
419 1 70.59 10.86 0.0
420 1 70.59 16.29 0.0
421 1 70.59 21.72 0.0
422 1 70.59 27.15 0.0
423 1 70.59 32.58 0.0
424 1 70.59 38.01 0.0
425 1 70.59 43.44 0.0
426 1 70.59 48.87 0.0
427 1 70.59 54.3 0.0
428 1 70.59 59.73 0.0
429 1 70.59 65.16 0.0
430 1 70.59 70.59 0.0
431 1 70.59 76.02 0.0
432 1 70.59 81.44999999999999 0.0
433 1 73.30499999999999 2.715 0.0
434 1 73.30499999999999 8.145 0.0
435 1 73.30499999999999 13.575 0.0
436 1 73.30499999999999 19.005 0.0
437 1 73.30499999999999 24.435 0.0
438 1 73.30499999999999 29.865 0.0
439 1 73.30499999999999 35.295 0.0
440 1 73.30499999999999 40.724999999999994 0.0
441 1 73.30499999999999 46.155 0.0
442 1 73.30499999999999 51.584999999999994 0.0
443 1 73.30499999999999 57.015 0.0
444 1 73.30499999999999 62.44499999999999 0.0
445 1 73.30499999999999 67.875 0.0
446 1 73.30499999999999 73.30499999999999 0.0
447 1 73.30499999999999 78.735 0.0
448 1 73.30499999999999 84.16499999999999 0.0
449 1 76.02 0.0 0.0
450 1 76.02 5.43 0.0
451 1 76.02 10.86 0.0
452 1 76.02 16.29 0.0
453 1 76.02 21.72 0.0
454 1 76.02 27.15 0.0
455 1 76.02 32.58 0.0
456 1 76.02 38.01 0.0
457 1 76.02 43.44 0.0
458 1 76.02 48.87 0.0
459 1 76.02 54.3 0.0
460 1 76.02 59.73 0.0
461 1 76.02 65.16 0.0
462 1 76.02 70.59 0.0
463 1 76.02 76.02 0.0
464 1 76.02 81.44999999999999 0.0
465 1 78.735 2.715 0.0
466 1 78.735 8.145 0.0
467 1 78.735 13.575 0.0
468 1 78.735 19.005 0.0
469 1 78.735 24.435 0.0
470 1 78.735 29.865 0.0
471 1 78.735 35.295 0.0
472 1 78.735 40.724999999999994 0.0
473 1 78.735 46.155 0.0
474 1 78.735 51.584999999999994 0.0
475 1 78.735 57.015 0.0
476 1 78.735 62.44499999999999 0.0
477 1 78.735 67.875 0.0
478 1 78.735 73.30499999999999 0.0
479 1 78.735 78.735 0.0
480 1 78.735 84.16499999999999 0.0
481 1 81.44999999999999 0.0 0.0
482 1 81.44999999999999 5.43 0.0
483 1 81.44999999999999 10.86 0.0
484 1 81.44999999999999 16.29 0.0
485 1 81.44999999999999 21.72 0.0
486 1 81.44999999999999 27.15 0.0
487 1 81.44999999999999 32.58 0.0
488 1 81.44999999999999 38.01 0.0
489 1 81.44999999999999 43.44 0.0
490 1 81.44999999999999 48.87 0.0
491 1 81.44999999999999 54.3 0.0
492 1 81.44999999999999 59.73 0.0
493 1 81.44999999999999 65.16 0.0
494 1 81.44999999999999 70.59 0.0
495 1 81.44999999999999 76.02 0.0
496 1 81.44999999999999 81.44999999999999 0.0
497 1 84.16499999999999 2.715 0.0
498 1 84.16499999999999 8.145 0.0
499 1 84.16499999999999 13.575 0.0
500 1 84.16499999999999 19.005 0.0
501 1 84.16499999999999 24.435 0.0
502 1 84.16499999999999 29.865 0.0
503 1 84.16499999999999 35.295 0.0
504 1 84.16499999999999 40.724999999999994 0.0
505 1 84.16499999999999 46.155 0.0
506 1 84.16499999999999 51.584999999999994 0.0
507 1 84.16499999999999 57.015 0.0
508 1 84.16499999999999 62.44499999999999 0.0
509 1 84.16499999999999 67.875 0.0
510 1 84.16499999999999 73.30499999999999 0.0
511 1 84.16499999999999 78.735 0.0
512 1 84.16499999999999 84.16499999999999 0.0
513 1 1.3575 1.3575 1.3575
514 1 1.3575 6.7875 1.3575
515 1 1.3575 12.2175 1.3575
516 1 1.3575 17.6475 1.3575
517 1 1.3575 23.0775 1.3575
518 1 1.3575 28.5075 1.3575
519 1 1.3575 33.9375 1.3575
520 1 1.3575 39.3675 1.3575
521 1 1.3575 44.7975 1.3575
522 1 1.3575 50.2275 1.3575
523 1 1.3575 55.6575 1.3575
524 1 1.3575 61.0875 1.3575
525 1 1.3575 66.5175 1.3575
526 1 1.3575 71.94749999999999 1.3575
527 1 1.3575 77.3775 1.3575
528 1 1.3575 82.80749999999999 1.3575
529 1 4.0725 4.0725 1.3575
530 1 4.0725 9.5025 1.3575
531 1 4.0725 14.9325 1.3575
532 1 4.0725 20.362499999999997 1.3575
533 1 4.0725 25.792499999999997 1.3575
534 1 4.0725 31.222499999999997 1.3575
535 1 4.0725 36.652499999999996 1.3575
536 1 4.0725 42.082499999999996 1.3575
537 1 4.0725 47.512499999999996 1.3575
538 1 4.0725 52.942499999999995 1.3575
539 1 4.0725 58.372499999999995 1.3575
540 1 4.0725 63.802499999999995 1.3575
541 1 4.0725 69.2325 1.3575
542 1 4.0725 74.6625 1.3575
543 1 4.0725 80.0925 1.3575
544 1 4.0725 85.5225 1.3575
545 1 6.7875 1.3575 1.3575
546 1 6.7875 6.7875 1.3575
547 1 6.7875 12.2175 1.3575
548 1 6.7875 17.6475 1.3575
549 1 6.7875 23.0775 1.3575
550 1 6.7875 28.5075 1.3575
551 1 6.7875 33.9375 1.3575
552 1 6.7875 39.3675 1.3575
553 1 6.7875 44.7975 1.3575
554 1 6.7875 50.2275 1.3575
555 1 6.7875 55.6575 1.3575
556 1 6.7875 61.0875 1.3575
557 1 6.7875 66.5175 1.3575
558 1 6.7875 71.94749999999999 1.3575
559 1 6.7875 77.3775 1.3575
560 1 6.7875 82.80749999999999 1.3575
561 1 9.5025 4.0725 1.3575
562 1 9.5025 9.5025 1.3575
563 1 9.5025 14.9325 1.3575
564 1 9.5025 20.362499999999997 1.3575
565 1 9.5025 25.792499999999997 1.3575
566 1 9.5025 31.222499999999997 1.3575
567 1 9.5025 36.652499999999996 1.3575
568 1 9.5025 42.082499999999996 1.3575
569 1 9.5025 47.512499999999996 1.3575
570 1 9.5025 52.942499999999995 1.3575
571 1 9.5025 58.372499999999995 1.3575
572 1 9.5025 63.802499999999995 1.3575
573 1 9.5025 69.2325 1.3575
574 1 9.5025 74.6625 1.3575
575 1 9.5025 80.0925 1.3575
576 1 9.5025 85.5225 1.3575
577 1 12.2175 1.3575 1.3575
578 1 12.2175 6.7875 1.3575
579 1 12.2175 12.2175 1.3575
580 1 12.2175 17.6475 1.3575
581 1 12.2175 23.0775 1.3575
582 1 12.2175 28.5075 1.3575
583 1 12.2175 33.9375 1.3575
584 1 12.2175 39.3675 1.3575
585 1 12.2175 44.7975 1.3575
586 1 12.2175 50.2275 1.3575
587 1 12.2175 55.6575 1.3575
588 1 12.2175 61.0875 1.3575
589 1 12.2175 66.5175 1.3575
590 1 12.2175 71.94749999999999 1.3575
591 1 12.2175 77.3775 1.3575
592 1 12.2175 82.80749999999999 1.3575
593 1 14.9325 4.0725 1.3575
594 1 14.9325 9.5025 1.3575
595 1 14.9325 14.9325 1.3575
596 1 14.9325 20.362499999999997 1.3575
597 1 14.9325 25.792499999999997 1.3575
598 1 14.9325 31.222499999999997 1.3575
599 1 14.9325 36.652499999999996 1.3575
600 1 14.9325 42.082499999999996 1.3575
601 1 14.9325 47.512499999999996 1.3575
602 1 14.9325 52.942499999999995 1.3575
603 1 14.9325 58.372499999999995 1.3575
604 1 14.9325 63.802499999999995 1.3575
605 1 14.9325 69.2325 1.3575
606 1 14.9325 74.6625 1.3575
607 1 14.9325 80.0925 1.3575
608 1 14.9325 85.5225 1.3575
609 1 17.6475 1.3575 1.3575
610 1 17.6475 6.7875 1.3575
611 1 17.6475 12.2175 1.3575
612 1 17.6475 17.6475 1.3575
613 1 17.6475 23.0775 1.3575
614 1 17.6475 28.5075 1.3575
615 1 17.6475 33.9375 1.3575
616 1 17.6475 39.3675 1.3575
617 1 17.6475 44.7975 1.3575
618 1 17.6475 50.2275 1.3575
619 1 17.6475 55.6575 1.3575
620 1 17.6475 61.0875 1.3575
621 1 17.6475 66.5175 1.3575
622 1 17.6475 71.94749999999999 1.3575
623 1 17.6475 77.3775 1.3575
624 1 17.6475 82.80749999999999 1.3575
625 1 20.362499999999997 4.0725 1.3575
626 1 20.362499999999997 9.5025 1.3575
627 1 20.362499999999997 14.9325 1.3575
628 1 20.362499999999997 20.362499999999997 1.3575
629 1 20.362499999999997 25.792499999999997 1.3575
630 1 20.362499999999997 31.222499999999997 1.3575
631 1 20.362499999999997 36.652499999999996 1.3575
632 1 20.362499999999997 42.082499999999996 1.3575
633 1 20.362499999999997 47.512499999999996 1.3575
634 1 20.362499999999997 52.942499999999995 1.3575
635 1 20.362499999999997 58.372499999999995 1.3575
636 1 20.362499999999997 63.802499999999995 1.3575
637 1 20.362499999999997 69.2325 1.3575
638 1 20.362499999999997 74.6625 1.3575
639 1 20.362499999999997 80.0925 1.3575
640 1 20.362499999999997 85.5225 1.3575
641 1 23.0775 1.3575 1.3575
642 1 23.0775 6.7875 1.3575
643 1 23.0775 12.2175 1.3575
644 1 23.0775 17.6475 1.3575
645 1 23.0775 23.0775 1.3575
646 1 23.0775 28.5075 1.3575
647 1 23.0775 33.9375 1.3575
648 1 23.0775 39.3675 1.3575
649 1 23.0775 44.7975 1.3575
650 1 23.0775 50.2275 1.3575
651 1 23.0775 55.6575 1.3575
652 1 23.0775 61.0875 1.3575
653 1 23.0775 66.5175 1.3575
654 1 23.0775 71.94749999999999 1.3575
655 1 23.0775 77.3775 1.3575
656 1 23.0775 82.80749999999999 1.3575
657 1 25.792499999999997 9.5025 1.3575
658 1 25.792499999999997 14.9325 1.3575
659 1 25.792499999999997 20.362499999999997 1.3575
660 1 25.792499999999997 25.792499999999997 1.3575
661 1 25.792499999999997 31.222499999999997 1.3575
662 1 25.792499999999997 36.652499999999996 1.3575
663 1 25.792499999999997 42.082499999999996 1.3575
664 1 25.792499999999997 47.512499999999996 1.3575
665 1 25.792499999999997 52.942499999999995 1.3575
666 1 25.792499999999997 58.372499999999995 1.3575
667 1 25.792499999999997 63.802499999999995 1.3575
668 1 25.792499999999997 69.2325 1.3575
669 1 25.792499999999997 74.6625 1.3575
670 1 25.792499999999997 80.0925 1.3575
671 1 25.792499999999997 85.5225 1.3575
672 1 28.5075 1.3575 1.3575
673 1 28.5075 6.7875 1.3575
674 1 28.5075 12.2175 1.3575
675 1 28.5075 17.6475 1.3575
676 1 28.5075 23.0775 1.3575
677 1 28.5075 28.5075 1.3575
678 1 28.5075 33.9375 1.3575
679 1 28.5075 39.3675 1.3575
680 1 28.5075 44.7975 1.3575
681 1 28.5075 50.2275 1.3575
682 1 28.5075 55.6575 1.3575
683 1 28.5075 61.0875 1.3575
684 1 28.5075 66.5175 1.3575
685 1 28.5075 71.94749999999999 1.3575
686 1 28.5075 77.3775 1.3575
687 1 28.5075 82.80749999999999 1.3575
688 1 31.222499999999997 4.0725 1.3575
689 1 31.222499999999997 9.5025 1.3575
690 1 31.222499999999997 14.9325 1.3575
691 1 31.222499999999997 25.792499999999997 1.3575
692 1 31.222499999999997 31.222499999999997 1.3575
693 1 31.222499999999997 36.652499999999996 1.3575
694 1 31.222499999999997 42.082499999999996 1.3575
695 1 31.222499999999997 47.512499999999996 1.3575
696 1 31.222499999999997 52.942499999999995 1.3575
697 1 31.222499999999997 58.372499999999995 1.3575
698 1 31.222499999999997 63.802499999999995 1.3575
699 1 31.222499999999997 69.2325 1.3575
700 1 31.222499999999997 74.6625 1.3575
701 1 31.222499999999997 80.0925 1.3575
702 1 33.9375 1.3575 1.3575
703 1 33.9375 6.7875 1.3575
704 1 33.9375 12.2175 1.3575
705 1 33.9375 17.6475 1.3575
706 1 33.9375 23.0775 1.3575
707 1 33.9375 28.5075 1.3575
708 1 33.9375 33.9375 1.3575
709 1 33.9375 39.3675 1.3575
710 1 33.9375 44.7975 1.3575
711 1 33.9375 50.2275 1.3575
712 1 33.9375 55.6575 1.3575
713 1 33.9375 61.0875 1.3575
714 1 33.9375 66.5175 1.3575
715 1 33.9375 71.94749999999999 1.3575
716 1 33.9375 77.3775 1.3575
717 1 33.9375 82.80749999999999 1.3575
718 1 36.652499999999996 4.0725 1.3575
719 1 36.652499999999996 9.5025 1.3575
720 1 36.652499999999996 14.9325 1.3575
721 1 36.652499999999996 20.362499999999997 1.3575
722 1 36.652499999999996 25.792499999999997 1.3575
723 1 36.652499999999996 31.222499999999997 1.3575
724 1 36.652499999999996 36.652499999999996 1.3575
725 1 36.652499999999996 42.082499999999996 1.3575
726 1 36.652499999999996 47.512499999999996 1.3575
727 1 36.652499999999996 52.942499999999995 1.3575
728 1 36.652499999999996 58.372499999999995 1.3575
729 1 36.652499999999996 63.802499999999995 1.3575
730 1 36.652499999999996 69.2325 1.3575
731 1 36.652499999999996 74.6625 1.3575
732 1 36.652499999999996 80.0925 1.3575
733 1 36.652499999999996 85.5225 1.3575
734 1 39.3675 1.3575 1.3575
735 1 39.3675 6.7875 1.3575
736 1 39.3675 12.2175 1.3575
737 1 39.3675 17.6475 1.3575
738 1 39.3675 23.0775 1.3575
739 1 39.3675 28.5075 1.3575
740 1 39.3675 33.9375 1.3575
741 1 39.3675 39.3675 1.3575
742 1 39.3675 44.7975 1.3575
743 1 39.3675 50.2275 1.3575
744 1 39.3675 55.6575 1.3575
745 1 39.3675 61.0875 1.3575
746 1 39.3675 66.5175 1.3575
747 1 39.3675 71.94749999999999 1.3575
748 1 39.3675 77.3775 1.3575
749 1 39.3675 82.80749999999999 1.3575
750 1 42.082499999999996 4.0725 1.3575
751 1 42.082499999999996 9.5025 1.3575
752 1 42.082499999999996 14.9325 1.3575
753 1 42.082499999999996 20.362499999999997 1.3575
754 1 42.082499999999996 25.792499999999997 1.3575
755 1 42.082499999999996 31.222499999999997 1.3575
756 1 42.082499999999996 36.652499999999996 1.3575
757 1 42.082499999999996 42.082499999999996 1.3575
758 1 42.082499999999996 47.512499999999996 1.3575
759 1 42.082499999999996 52.942499999999995 1.3575
760 1 42.082499999999996 58.372499999999995 1.3575
761 1 42.082499999999996 63.802499999999995 1.3575
762 1 42.082499999999996 69.2325 1.3575
763 1 42.082499999999996 74.6625 1.3575
764 1 42.082499999999996 80.0925 1.3575
765 1 42.082499999999996 85.5225 1.3575
766 1 44.7975 1.3575 1.3575
767 1 44.7975 6.7875 1.3575
768 1 44.7975 12.2175 1.3575
769 1 44.7975 17.6475 1.3575
770 1 44.7975 23.0775 1.3575
771 1 44.7975 28.5075 1.3575
772 1 44.7975 33.9375 1.3575
773 1 44.7975 39.3675 1.3575
774 1 44.7975 44.7975 1.3575
775 1 44.7975 50.2275 1.3575
776 1 44.7975 55.6575 1.3575
777 1 44.7975 61.0875 1.3575
778 1 44.7975 66.5175 1.3575
779 1 44.7975 71.94749999999999 1.3575
780 1 44.7975 77.3775 1.3575
781 1 44.7975 82.80749999999999 1.3575
782 1 47.512499999999996 4.0725 1.3575
783 1 47.512499999999996 9.5025 1.3575
784 1 47.512499999999996 14.9325 1.3575
785 1 47.512499999999996 20.362499999999997 1.3575
786 1 47.512499999999996 25.792499999999997 1.3575
787 1 47.512499999999996 31.222499999999997 1.3575
788 1 47.512499999999996 36.652499999999996 1.3575
789 1 47.512499999999996 42.082499999999996 1.3575
790 1 47.512499999999996 52.942499999999995 1.3575
791 1 47.512499999999996 58.372499999999995 1.3575
792 1 47.512499999999996 63.802499999999995 1.3575
793 1 47.512499999999996 69.2325 1.3575
794 1 47.512499999999996 74.6625 1.3575
795 1 47.512499999999996 80.0925 1.3575
796 1 47.512499999999996 85.5225 1.3575
797 1 50.2275 1.3575 1.3575
798 1 50.2275 6.7875 1.3575
799 1 50.2275 12.2175 1.3575
800 1 50.2275 17.6475 1.3575
801 1 50.2275 23.0775 1.3575
802 1 50.2275 28.5075 1.3575
803 1 50.2275 33.9375 1.3575
804 1 50.2275 39.3675 1.3575
805 1 50.2275 44.7975 1.3575
806 1 50.2275 50.2275 1.3575
807 1 50.2275 55.6575 1.3575
808 1 50.2275 61.0875 1.3575
809 1 50.2275 66.5175 1.3575
810 1 50.2275 71.94749999999999 1.3575
811 1 50.2275 82.80749999999999 1.3575
812 1 52.942499999999995 4.0725 1.3575
813 1 52.942499999999995 9.5025 1.3575
814 1 52.942499999999995 14.9325 1.3575
815 1 52.942499999999995 20.362499999999997 1.3575
816 1 52.942499999999995 25.792499999999997 1.3575
817 1 52.942499999999995 31.222499999999997 1.3575
818 1 52.942499999999995 36.652499999999996 1.3575
819 1 52.942499999999995 42.082499999999996 1.3575
820 1 52.942499999999995 47.512499999999996 1.3575
821 1 52.942499999999995 52.942499999999995 1.3575
822 1 52.942499999999995 58.372499999999995 1.3575
823 1 52.942499999999995 63.802499999999995 1.3575
824 1 52.942499999999995 69.2325 1.3575
825 1 52.942499999999995 74.6625 1.3575
826 1 52.942499999999995 80.0925 1.3575
827 1 52.942499999999995 85.5225 1.3575
828 1 55.6575 1.3575 1.3575
829 1 55.6575 6.7875 1.3575
830 1 55.6575 12.2175 1.3575
831 1 55.6575 23.0775 1.3575
832 1 55.6575 28.5075 1.3575
833 1 55.6575 33.9375 1.3575
834 1 55.6575 39.3675 1.3575
835 1 55.6575 44.7975 1.3575
836 1 55.6575 50.2275 1.3575
837 1 55.6575 55.6575 1.3575
838 1 55.6575 61.0875 1.3575
839 1 55.6575 66.5175 1.3575
840 1 55.6575 71.94749999999999 1.3575
841 1 55.6575 77.3775 1.3575
842 1 55.6575 82.80749999999999 1.3575
843 1 58.372499999999995 4.0725 1.3575
844 1 58.372499999999995 9.5025 1.3575
845 1 58.372499999999995 14.9325 1.3575
846 1 58.372499999999995 20.362499999999997 1.3575
847 1 58.372499999999995 25.792499999999997 1.3575
848 1 58.372499999999995 31.222499999999997 1.3575
849 1 58.372499999999995 36.652499999999996 1.3575
850 1 58.372499999999995 42.082499999999996 1.3575
851 1 58.372499999999995 47.512499999999996 1.3575
852 1 58.372499999999995 52.942499999999995 1.3575
853 1 58.372499999999995 58.372499999999995 1.3575
854 1 58.372499999999995 63.802499999999995 1.3575
855 1 58.372499999999995 69.2325 1.3575
856 1 58.372499999999995 74.6625 1.3575
857 1 58.372499999999995 80.0925 1.3575
858 1 58.372499999999995 85.5225 1.3575
859 1 61.0875 1.3575 1.3575
860 1 61.0875 6.7875 1.3575
861 1 61.0875 12.2175 1.3575
862 1 61.0875 23.0775 1.3575
863 1 61.0875 28.5075 1.3575
864 1 61.0875 33.9375 1.3575
865 1 61.0875 39.3675 1.3575
866 1 61.0875 44.7975 1.3575
867 1 61.0875 50.2275 1.3575
868 1 61.0875 55.6575 1.3575
869 1 61.0875 61.0875 1.3575
870 1 61.0875 66.5175 1.3575
871 1 61.0875 71.94749999999999 1.3575
872 1 61.0875 77.3775 1.3575
873 1 61.0875 82.80749999999999 1.3575
874 1 63.802499999999995 4.0725 1.3575
875 1 63.802499999999995 9.5025 1.3575
876 1 63.802499999999995 14.9325 1.3575
877 1 63.802499999999995 20.362499999999997 1.3575
878 1 63.802499999999995 25.792499999999997 1.3575
879 1 63.802499999999995 31.222499999999997 1.3575
880 1 63.802499999999995 36.652499999999996 1.3575
881 1 63.802499999999995 42.082499999999996 1.3575
882 1 63.802499999999995 47.512499999999996 1.3575
883 1 63.802499999999995 52.942499999999995 1.3575
884 1 63.802499999999995 58.372499999999995 1.3575
885 1 63.802499999999995 63.802499999999995 1.3575
886 1 63.802499999999995 69.2325 1.3575
887 1 63.802499999999995 74.6625 1.3575
888 1 63.802499999999995 80.0925 1.3575
889 1 63.802499999999995 85.5225 1.3575
890 1 66.5175 1.3575 1.3575
891 1 66.5175 6.7875 1.3575
892 1 66.5175 12.2175 1.3575
893 1 66.5175 17.6475 1.3575
894 1 66.5175 23.0775 1.3575
895 1 66.5175 28.5075 1.3575
896 1 66.5175 33.9375 1.3575
897 1 66.5175 39.3675 1.3575
898 1 66.5175 44.7975 1.3575
899 1 66.5175 50.2275 1.3575
900 1 66.5175 55.6575 1.3575
901 1 66.5175 61.0875 1.3575
902 1 66.5175 66.5175 1.3575
903 1 66.5175 71.94749999999999 1.3575
904 1 66.5175 77.3775 1.3575
905 1 66.5175 82.80749999999999 1.3575
906 1 69.2325 4.0725 1.3575
907 1 69.2325 9.5025 1.3575
908 1 69.2325 14.9325 1.3575
909 1 69.2325 25.792499999999997 1.3575
910 1 69.2325 31.222499999999997 1.3575
911 1 69.2325 36.652499999999996 1.3575
912 1 69.2325 42.082499999999996 1.3575
913 1 69.2325 47.512499999999996 1.3575
914 1 69.2325 52.942499999999995 1.3575
915 1 69.2325 58.372499999999995 1.3575
916 1 69.2325 63.802499999999995 1.3575
917 1 69.2325 69.2325 1.3575
918 1 69.2325 74.6625 1.3575
919 1 69.2325 80.0925 1.3575
920 1 69.2325 85.5225 1.3575
921 1 71.94749999999999 1.3575 1.3575
922 1 71.94749999999999 6.7875 1.3575
923 1 71.94749999999999 12.2175 1.3575
924 1 71.94749999999999 17.6475 1.3575
925 1 71.94749999999999 23.0775 1.3575
926 1 71.94749999999999 28.5075 1.3575
927 1 71.94749999999999 33.9375 1.3575
928 1 71.94749999999999 39.3675 1.3575
929 1 71.94749999999999 44.7975 1.3575
930 1 71.94749999999999 55.6575 1.3575
931 1 71.94749999999999 61.0875 1.3575
932 1 71.94749999999999 66.5175 1.3575
933 1 71.94749999999999 71.94749999999999 1.3575
934 1 71.94749999999999 77.3775 1.3575
935 1 71.94749999999999 82.80749999999999 1.3575
936 1 74.6625 4.0725 1.3575
937 1 74.6625 9.5025 1.3575
938 1 74.6625 14.9325 1.3575
939 1 74.6625 20.362499999999997 1.3575
940 1 74.6625 25.792499999999997 1.3575
941 1 74.6625 31.222499999999997 1.3575
942 1 74.6625 36.652499999999996 1.3575
943 1 74.6625 42.082499999999996 1.3575
944 1 74.6625 47.512499999999996 1.3575
945 1 74.6625 52.942499999999995 1.3575
946 1 74.6625 58.372499999999995 1.3575
947 1 74.6625 63.802499999999995 1.3575
948 1 74.6625 69.2325 1.3575
949 1 74.6625 74.6625 1.3575
950 1 74.6625 80.0925 1.3575
951 1 74.6625 85.5225 1.3575
952 1 77.3775 1.3575 1.3575
953 1 77.3775 6.7875 1.3575
954 1 77.3775 12.2175 1.3575
955 1 77.3775 17.6475 1.3575
956 1 77.3775 23.0775 1.3575
957 1 77.3775 28.5075 1.3575
958 1 77.3775 33.9375 1.3575